 Gaussian 16, Revision B.01,

 ---------------------------------
 # HF/STO-3G opt geom=connectivity
 ---------------------------------

 -------------------------------------------
 water HF/STO-3G rough geometry optimization
 -------------------------------------------
 Symbolic Z-matrix:
 Charge =  0 Multiplicity = 1

 SCF Done:  E(RHF) =  -74.9606990587     A.U. after    7 cycles
 SCF Done:  E(RHF) =  -74.9650715310     A.U. after    8 cycles
 SCF Done:  E(RHF) =  -74.9658569996     A.U. after    6 cycles
 SCF Done:  E(RHF) =  -74.9659011708     A.U. after    6 cycles
 Optimization completed.
    -- Stationary point found.
 Normal termination of Gaussian 16 at Sun Jun  8 14:55:24 2025.

 -----------------------------------------
 # B3LYP/6-31G(d,p) opt freq geom=allcheck
 -----------------------------------------

 Structure from the checkpoint file:  "optfreq.chk"
 -------------------------------------------
 water HF/STO-3G rough geometry optimization
 -------------------------------------------
 Charge =  0 Multiplicity = 1

 SCF Done:  E(RB3LYP) =  -76.4185500995     A.U. after    9 cycles
 SCF Done:  E(RB3LYP) =  -76.4197097657     A.U. after    9 cycles
 SCF Done:  E(RB3LYP) =  -76.4197374091     A.U. after    7 cycles
 Optimization completed.
 Normal termination of Gaussian 16 at Sun Jun  8 14:55:26 2025.

 ----------------------------------------------------------------------
 #N Geom=AllCheck Guess=TCheck SCRF=Check GenChk RB3LYP/6-31G(d,p) Freq
 ----------------------------------------------------------------------

 Structure from the checkpoint file:  "optfreq.chk"
 -------------------------------------------
 water HF/STO-3G rough geometry optimization
 -------------------------------------------
 Charge =  0 Multiplicity = 1

 SCF Done:  E(RB3LYP) =  -76.4197374091     A.U. after    1 cycles

  Exact polarizability:   2.994   0.000   7.510   0.000   0.000   5.561
 Approx polarizability:   3.295   0.000   9.176   0.000   0.000   6.983

                      1                      2                      3
                     A1                     A1                     B2
 Frequencies --   1665.5623              3799.1768              3912.1582
 Red. masses --      1.0827                 1.0452                 1.0811
 Frc consts  --      1.7696                 8.8883                 9.7486
 IR Inten    --     70.2776                 1.6351                20.1745

 - Thermochemistry -
 -------------------
 Temperature   298.150 Kelvin.  Pressure   1.00000 Atm.
 Atom     1 has atomic number  8 and mass  15.99491

 Molecular mass:    18.01056 amu.
 Principal axes and moments of inertia in atomic units:
                           1         2         3
     Eigenvalues --     2.27208   4.14960   6.42168
           X           -0.00000   0.00000   1.00000
           Y            1.00000  -0.00000   0.00000
           Z            0.00000   1.00000  -0.00000
 This molecule is an asymmetric top.
 Rotational symmetry number  2.
 Rotational temperatures (Kelvin)     38.12104    20.87282    13.48774
 Rotational constants (GHZ):         794.31364   434.91903   281.03884
 Zero-point vibrational energy      56086.3 (Joules/Mol)
                                   13.40495 (Kcal/Mol)
 Vibrational temperatures:   2396.37  5466.17  5628.72
          (Kelvin)

 Zero-point correction=                           0.021362 (Hartree/Particle)
 Thermal correction to Energy=                    0.024197
 Thermal correction to Enthalpy=                  0.025141
 Thermal correction to Gibbs Free Energy=         0.003705
 Sum of electronic and zero-point Energies=            -76.398375
 Sum of electronic and thermal Energies=               -76.395540
 Sum of electronic and thermal Enthalpies=             -76.394596
 Sum of electronic and thermal Free Energies=          -76.416032

                     E (Thermal)             CV                S
                      KCal/Mol        Cal/Mol-Kelvin    Cal/Mol-Kelvin
 Total                   15.184              6.003             45.117
 Electronic               0.000              0.000              0.000
 Translational            0.889              2.981             34.608
 Rotational               0.889              2.981             10.503
 Vibrational             13.406              0.042              0.006

    -- Stationary point found.
 Normal termination of Gaussian 16 at Sun Jun  8 14:55:28 2025.

 ---------------------------------------
 # B3LYP/TZVP opt em=GD3BJ geom=allcheck
 ---------------------------------------

 Structure from the checkpoint file:  "tzvp_opt.chk"
 -------------------------------------------
 water HF/STO-3G rough geometry optimization
 -------------------------------------------
 Charge =  0 Multiplicity = 1

 SCF Done:  E(RB3LYP) =  -76.4611501899     A.U. after   10 cycles
 SCF Done:  E(RB3LYP) =  -76.4611947400     A.U. after    7 cycles
 SCF Done:  E(RB3LYP) =  -76.4611961161     A.U. after    6 cycles
 Optimization completed.
    -- Stationary point found.
 Normal termination of Gaussian 16 at Sun Jun  8 14:55:30 2025.

 ---------------------------------------
 # B3LYP/def2TZVP em=GD3BJ geom=allcheck
 ---------------------------------------

 Structure from the checkpoint file:  "SP_VAC.chk"
 -------------------------------------------
 water HF/STO-3G rough geometry optimization
 -------------------------------------------
 Charge =  0 Multiplicity = 1

 SCF Done:  E(RB3LYP) =  -76.4635681533     A.U. after    9 cycles
 Normal termination of Gaussian 16 at Sun Jun  8 14:55:31 2025.
 Gaussian 16:  EM64M-G16RevB.01 20-Dec-2017

 ------------------------------------------------------------
 # B3LYP/def2TZVP em=GD3BJ scrf=(solvent=water) geom=allcheck
 ------------------------------------------------------------

 Structure from the checkpoint file:  "SP_water.chk"
 -------------------------------------------
 water HF/STO-3G rough geometry optimization
 -------------------------------------------
 Charge =  0 Multiplicity = 1

                         Standard orientation:
 ---------------------------------------------------------------------
 Center     Atomic      Atomic             Coordinates (Angstroms)
 Number     Number       Type             X           Y           Z
 ---------------------------------------------------------------------
      1          8           0        0.000000    0.000000    0.117189
      2          1           0       -0.000000    0.763794   -0.468756
      3          1           0       -0.000000   -0.763794   -0.468756
 ---------------------------------------------------------------------

 SCF Done:  E(RB3LYP) =  -76.4710083374     A.U. after    8 cycles

 The electronic state is 1-A1.
 Alpha  occ. eigenvalues --  -19.12914  -1.01505  -0.53465  -0.39679  -0.32148
 Alpha virt. eigenvalues --    0.02640   0.10572   0.35222   0.39804   0.41439
 Alpha virt. eigenvalues --    0.43167   0.56949   0.59695   1.16339   1.18630
 Alpha virt. eigenvalues --    1.29081   1.52090   1.62862   1.75235   1.97781

 Mulliken charges:
               1
     1  O   -0.693789
     2  H    0.346894
     3  H    0.346894
 Sum of Mulliken charges =  -0.00000

 Dipole moment (field-independent basis, Debye):
    X=             -0.0000    Y=              0.0000    Z=             -2.3119  Tot=              2.3119
 Quadrupole moment (field-independent basis, Debye-Ang):
   XX=             -7.6244   YY=             -4.2472   ZZ=             -6.3130
   XY=              0.0000   XZ=              0.0000   YZ=             -0.0000

 Normal termination of Gaussian 16 at Sun Jun  8 14:55:32 2025.
