 Gaussian 16, Revision B.01,

 ---------------------------------
 # HF/STO-3G opt geom=connectivity
 ---------------------------------

 --------------------------------------------------
 Benzonitrile HF/STO-3G rough geometry optimization
 --------------------------------------------------
 Symbolic Z-matrix:
 Charge =  0 Multiplicity = 1

 SCF Done:  E(RHF) =  -318.442987432     A.U. after   15 cycles
 SCF Done:  E(RHF) =  -318.444357338     A.U. after   14 cycles
 SCF Done:  E(RHF) =  -318.444462200     A.U. after   11 cycles
 SCF Done:  E(RHF) =  -318.444464149     A.U. after    9 cycles
 SCF Done:  E(RHF) =  -318.444464442     A.U. after    8 cycles
 Optimization completed.
    -- Stationary point found.
 Normal termination of Gaussian 16 at Sun Jun  8 21:34:50 2025.

 --------------------------------------------------
 # B3LYP/6-31G(d,p) opt freq em=GD3BJ geom=allcheck
 --------------------------------------------------

 Structure from the checkpoint file:  "Benzonitrile_optfreq.chk"
 --------------------------------------------------
 Benzonitrile HF/STO-3G rough geometry optimization
 --------------------------------------------------
 Charge =  0 Multiplicity = 1

 SCF Done:  E(RB3LYP) =  -324.522533393     A.U. after   15 cycles
 SCF Done:  E(RB3LYP) =  -324.523503393     A.U. after   12 cycles
 SCF Done:  E(RB3LYP) =  -324.523519705     A.U. after    9 cycles
 Optimization completed.
 Normal termination of Gaussian 16 at Sun Jun  8 21:35:09 2025.

 ----------------------------------------------------------------------
 #N Geom=AllCheck Guess=TCheck SCRF=Check GenChk RB3LYP/6-31G(d,p) Freq
 ----------------------------------------------------------------------

 Structure from the checkpoint file:  "Benzonitrile_optfreq.chk"
 --------------------------------------------------
 Benzonitrile HF/STO-3G rough geometry optimization
 --------------------------------------------------
 Charge =  0 Multiplicity = 1

 SCF Done:  E(RB3LYP) =  -324.523519705     A.U. after    1 cycles

  Exact polarizability: 111.472   0.001  75.185   0.000  -0.000  26.952
 Approx polarizability: 191.376   0.005 127.164   0.000   0.000  40.606

                      1                      2                      3
                      A                      A                      A
 Frequencies --    146.5174               163.5935               390.6613
 Red. masses --      5.8069                 6.6489                 4.7854
 Frc consts  --      0.0734                 0.1048                 0.4303
 IR Inten    --      2.2467                 4.5107                 1.1606

                      4                      5                      6
                      A                      A                      A
 Frequencies --    410.3412               466.6550               559.6736
 Red. masses --      2.9537                 8.4619                 7.9524
 Frc consts  --      0.2930                 1.0857                 1.4676
 IR Inten    --      0.0000                 0.0005                 0.1381

                      7                      8                      9
                      A                      A                      A
 Frequencies --    569.1961               639.3387               703.8549
 Red. masses --      4.2276                 6.6906                 2.0442
 Frc consts  --      0.8070                 1.6113                 0.5967
 IR Inten    --     13.6082                 0.1094                22.9830

                     10                     11                     12
                      A                      A                      A
 Frequencies --    776.3785               776.9552               860.2618
 Red. masses --      1.7088                 6.0793                 1.2468
 Frc consts  --      0.6069                 2.1622                 0.5436
 IR Inten    --     32.1424                 2.1378                 0.0000

                     13                     14                     15
                      A                      A                      A
 Frequencies --    941.0453               980.2952              1009.5833
 Red. masses --      1.3721                 1.3558                 1.2768
 Frc consts  --      0.7159                 0.7677                 0.7668
 IR Inten    --      2.4109                 0.0000                 0.0346

                     16                     17                     18
                      A                      A                      A
 Frequencies --   1019.8349              1055.4863              1110.6469
 Red. masses --      6.2520                 2.2111                 1.5547
 Frc consts  --      3.8312                 1.4514                 1.1300
 IR Inten    --      0.4037                 2.5442                 2.9680

                     19                     20                     21
                      A                      A                      A
 Frequencies --   1192.7604              1206.5385              1228.9655
 Red. masses --      1.1003                 1.1823                 3.3924
 Frc consts  --      0.9223                 1.0141                 3.0188
 IR Inten    --      0.0896                 1.0955                 0.3405

                     22                     23                     24
                      A                      A                      A
 Frequencies --   1338.2591              1364.2806              1487.7416
 Red. masses --      2.3295                 2.1913                 2.2365
 Frc consts  --      2.4581                 2.4031                 2.9166
 IR Inten    --      0.5427                 1.5442                 6.6490

                     25                     26                     27
                      A                      A                      A
 Frequencies --   1535.8872              1633.3804              1659.1816
 Red. masses --      2.2288                 5.4436                 5.5486
 Frc consts  --      3.0977                 8.5568                 8.9995
 IR Inten    --      8.4096                 0.9538                 0.9366

                     28                     29                     30
                      A                      A                      A
 Frequencies --   2352.0788              3191.2140              3201.6310
 Red. masses --     12.6807                 1.0859                 1.0892
 Frc consts  --     41.3330                 6.5157                 6.5780
 IR Inten    --     26.5740                 0.0494                 5.4865

                     31                     32                     33
                      A                      A                      A
 Frequencies --   3210.0419              3219.8267              3222.5567
 Red. masses --      1.0932                 1.0949                 1.0978
 Frc consts  --      6.6367                 6.6878                 6.7170
 IR Inten    --     13.3959                10.1100                 2.4795

 - Thermochemistry -
 -------------------
 Temperature   298.150 Kelvin.  Pressure   1.00000 Atm.
 Atom     1 has atomic number  6 and mass  12.00000

 Molecular mass:   103.04220 amu.
 Principal axes and moments of inertia in atomic units:
                           1         2         3
     Eigenvalues --   319.125811168.659861487.78568
           X            1.00000   0.00000   0.00000
           Y           -0.00000   1.00000  -0.00000
           Z           -0.00000   0.00000   1.00000
 This molecule is an asymmetric top.
 Rotational symmetry number  1.
 Rotational temperatures (Kelvin)      0.27141     0.07411     0.05822
 Rotational constants (GHZ):           5.65527     1.54428     1.21304
 Zero-point vibrational energy     260933.4 (Joules/Mol)
                                   62.36459 (Kcal/Mol)
 Warning -- explicit consideration of   7 degrees of freedom as
           vibrations may cause significant error
 Vibrational temperatures:    210.81   235.37   562.07   590.39   671.41
          (Kelvin)            805.25   818.95   919.87  1012.69  1117.04
                             1117.87  1237.72  1353.95  1410.43  1452.57
                             1467.31  1518.61  1597.97  1716.12  1735.94
                             1768.21  1925.46  1962.90  2140.53  2209.80
                             2350.07  2387.19  3384.12  4591.45  4606.43
                             4618.53  4632.61  4636.54

 Zero-point correction=                           0.099384 (Hartree/Particle)
 Thermal correction to Energy=                    0.105490
 Thermal correction to Enthalpy=                  0.106435
 Thermal correction to Gibbs Free Energy=         0.069100
 Sum of electronic and zero-point Energies=           -324.424135
 Sum of electronic and thermal Energies=              -324.418029
 Sum of electronic and thermal Enthalpies=            -324.417085
 Sum of electronic and thermal Free Energies=         -324.454419

                     E (Thermal)             CV                S
                      KCal/Mol        Cal/Mol-Kelvin    Cal/Mol-Kelvin
 Total                   66.196             23.185             78.576
 Electronic               0.000              0.000              0.000
 Translational            0.889              2.981             39.807
 Rotational               0.889              2.981             27.808
 Vibrational             64.419             17.223             10.961
 Vibration     1          0.617              1.906              2.717
 Vibration     2          0.623              1.887              2.508
 Vibration     3          0.758              1.490              0.998
 Vibration     4          0.775              1.448              0.925
 Vibration     5          0.824              1.324              0.747
 Vibration     6          0.915              1.119              0.524
 Vibration     7          0.925              1.098              0.506

    -- Stationary point found.
 Normal termination of Gaussian 16 at Sun Jun  8 21:35:47 2025.

 ---------------------------------------
 # B3LYP/TZVP opt em=GD3BJ geom=allcheck
 ---------------------------------------

 Structure from the checkpoint file:  "Benzonitrile_tzvp_opt.chk"
 --------------------------------------------------
 Benzonitrile HF/STO-3G rough geometry optimization
 --------------------------------------------------
 Charge =  0 Multiplicity = 1

 SCF Done:  E(RB3LYP) =  -324.623748069     A.U. after   15 cycles
 SCF Done:  E(RB3LYP) =  -324.624097698     A.U. after   11 cycles
 SCF Done:  E(RB3LYP) =  -324.624100083     A.U. after    8 cycles
 Optimization completed.
    -- Stationary point found.
 Normal termination of Gaussian 16 at Sun Jun  8 21:36:22 2025.

 ---------------------------------------
 # B3LYP/def2TZVP em=GD3BJ geom=allcheck
 ---------------------------------------

 Structure from the checkpoint file:  "Benzonitrile_SP_VAC.chk"
 --------------------------------------------------
 Benzonitrile HF/STO-3G rough geometry optimization
 --------------------------------------------------
 Charge =  0 Multiplicity = 1

 SCF Done:  E(RB3LYP) =  -324.638061671     A.U. after   15 cycles
 Normal termination of Gaussian 16 at Sun Jun  8 21:36:57 2025.
 Gaussian 16:  EM64M-G16RevB.01 20-Dec-2017

 ------------------------------------------------------------
 # B3LYP/def2TZVP em=GD3BJ scrf=(solvent=water) geom=allcheck
 ------------------------------------------------------------

 Structure from the checkpoint file:  "Benzonitrile_SP_water.chk"
 --------------------------------------------------
 Benzonitrile HF/STO-3G rough geometry optimization
 --------------------------------------------------
 Charge =  0 Multiplicity = 1

                         Standard orientation:
 ---------------------------------------------------------------------
 Center     Atomic      Atomic             Coordinates (Angstroms)
 Number     Number       Type             X           Y           Z
 ---------------------------------------------------------------------
      1          6           0        0.090108    1.212769   -0.000000
      2          6           0        1.477357    1.206231    0.000000
      3          6           0        2.171459   -0.000030    0.000000
      4          6           0        1.477312   -1.206264    0.000000
      5          6           0        0.090062   -1.212743   -0.000000
      6          6           0       -0.608311    0.000027   -0.000000
      7          6           0       -2.037370    0.000065    0.000001
      8          7           0       -3.190856   -0.000038   -0.000000
      9          1           0       -0.458625    2.144766   -0.000000
     10          1           0        2.017877    2.143809    0.000000
     11          1           0        3.253952   -0.000052    0.000000
     12          1           0        2.017795   -2.143863    0.000000
     13          1           0       -0.458707   -2.144719   -0.000000
 ---------------------------------------------------------------------

 SCF Done:  E(RB3LYP) =  -324.646097772     A.U. after   12 cycles

 The electronic state is 1-A.
 Alpha  occ. eigenvalues --  -14.32822 -10.22813 -10.22757 -10.20332 -10.20330
 Alpha  occ. eigenvalues --  -10.19657 -10.19415 -10.19408  -0.92785  -0.88424
 Alpha  occ. eigenvalues --   -0.78953  -0.77235  -0.65848  -0.63159  -0.56888
 Alpha  occ. eigenvalues --   -0.50723  -0.48417  -0.45837  -0.44520  -0.41662
 Alpha  occ. eigenvalues --   -0.39511  -0.37669  -0.37519  -0.36475  -0.35098
 Alpha  occ. eigenvalues --   -0.28066  -0.27678
 Alpha virt. eigenvalues --   -0.06313  -0.03340   0.01734   0.03749   0.06062
 Alpha virt. eigenvalues --    0.06872   0.07783   0.09953   0.11519   0.12182
 Alpha virt. eigenvalues --    0.13111   0.13956   0.18234   0.19055   0.19561

 Mulliken charges:
               1
     1  C   -0.210603
     2  C   -0.105658
     3  C   -0.112433
     4  C   -0.105654
     5  C   -0.210606
     6  C    0.254969
     7  C   -0.185599
     8  N   -0.058182
     9  H    0.149344
    10  H    0.144615
    11  H    0.145847
    12  H    0.144616
    13  H    0.149343
 Sum of Mulliken charges =  -0.00000

 Dipole moment (field-independent basis, Debye):
    X=              6.0510    Y=              0.0001    Z=              0.0000  Tot=              6.0510
 Quadrupole moment (field-independent basis, Debye-Ang):
   XX=            -58.9811   YY=            -38.7751   ZZ=            -49.0602
   XY=             -0.0004   XZ=             -0.0000   YZ=             -0.0000

 Normal termination of Gaussian 16 at Sun Jun  8 21:37:38 2025.
